 TITLE     = "Mesh"
 VARIABLES = "x"
 "y"
 ZONE T="Block            1 "
 I=  45, J=  21, K= 1, ZONETYPE=Ordered
 DATAPACKING=BLOCK
 DT=(SINGLE SINGLE)
    0.0000000000E+00
    0.2154052571E-04
    0.4766800168E-04
    0.7935275811E-04
    0.1177673549E-03
    0.1643272991E-03
    0.2207392842E-03
    0.2890580187E-03
    0.3717526929E-03
    0.4717840217E-03
    0.5926925088E-03
    0.7386980474E-03
    0.9148100625E-03
    0.1126945971E-02
    0.1382053598E-02
    0.1688230105E-02
    0.2054825774E-02
    0.2492515443E-02
    0.3013313520E-02
    0.3630500679E-02
    0.4358422408E-02
    0.5212113386E-02
    0.6206700176E-02
    0.7356542148E-02
    0.8674091913E-02
    0.1016849656E-01
    0.1184402111E-01
    0.1369845118E-01
    0.1572170835E-01
    0.1789496441E-01
    0.2019053881E-01
    0.2257278371E-01
    0.3000000000E-01
    0.3209022477E-01
    0.3418015926E-01
    0.3626951336E-01
    0.3835799728E-01
    0.4044532172E-01
    0.4253119799E-01
    0.4461533824E-01
    0.4669745558E-01
    0.4877726420E-01
    0.5085447960E-01
    0.5292881870E-01
    0.5500000000E-01
    0.0000000000E+00
    0.2154052571E-04
    0.4766800168E-04
    0.7935275811E-04
    0.1177673549E-03
    0.1643272991E-03
    0.2207392842E-03
    0.2890580187E-03
    0.3717526929E-03
    0.4717840217E-03
    0.5926925088E-03
    0.7386980474E-03
    0.9148100625E-03
    0.1126945971E-02
    0.1382053598E-02
    0.1688230105E-02
    0.2054825774E-02
    0.2492515443E-02
    0.3013313520E-02
    0.3630500679E-02
    0.4358422408E-02
    0.5212113386E-02
    0.6206700176E-02
    0.7356542148E-02
    0.8674091913E-02
    0.1016849656E-01
    0.1184402111E-01
    0.1369845118E-01
    0.1572170835E-01
    0.1789496441E-01
    0.2019053881E-01
    0.2257278371E-01
    0.3000000000E-01
    0.3214242327E-01
    0.3428454902E-01
    0.3642607989E-01
    0.3856671884E-01
    0.4070616935E-01
    0.4284413554E-01
    0.4498032235E-01
    0.4711443573E-01
    0.4924618274E-01
    0.5137527177E-01
    0.5350141267E-01
    0.5562431690E-01
    0.0000000000E+00
    0.2154052571E-04
    0.4766800168E-04
    0.7935275811E-04
    0.1177673549E-03
    0.1643272991E-03
    0.2207392842E-03
    0.2890580187E-03
    0.3717526929E-03
    0.4717840217E-03
    0.5926925088E-03
    0.7386980474E-03
    0.9148100625E-03
    0.1126945971E-02
    0.1382053598E-02
    0.1688230105E-02
    0.2054825774E-02
    0.2492515443E-02
    0.3013313520E-02
    0.3630500679E-02
    0.4358422408E-02
    0.5212113386E-02
    0.6206700176E-02
    0.7356542148E-02
    0.8674091913E-02
    0.1016849656E-01
    0.1184402111E-01
    0.1369845118E-01
    0.1572170835E-01
    0.1789496441E-01
    0.2019053881E-01
    0.2257278371E-01
    0.3000000000E-01
    0.3219467071E-01
    0.3438903665E-01
    0.3658279319E-01
    0.3877563607E-01
    0.4096726152E-01
    0.4315736645E-01
    0.4534564862E-01
    0.4753180678E-01
    0.4971554086E-01
    0.5189655215E-01
    0.5407454341E-01
    0.5624921908E-01
    0.0000000000E+00
    0.2154052571E-04
    0.4766800168E-04
    0.7935275811E-04
    0.1177673549E-03
    0.1643272991E-03
    0.2207392842E-03
    0.2890580187E-03
    0.3717526929E-03
    0.4717840217E-03
    0.5926925088E-03
    0.7386980474E-03
    0.9148100625E-03
    0.1126945971E-02
    0.1382053598E-02
    0.1688230105E-02
    0.2054825774E-02
    0.2492515443E-02
    0.3013313520E-02
    0.3630500679E-02
    0.4358422408E-02
    0.5212113386E-02
    0.6206700176E-02
    0.7356542148E-02
    0.8674091913E-02
    0.1016849656E-01
    0.1184402111E-01
    0.1369845118E-01
    0.1572170835E-01
    0.1789496441E-01
    0.2019053881E-01
    0.2257278371E-01
    0.3000000000E-01
    0.3224695081E-01
    0.3449358958E-01
    0.3673960444E-01
    0.3898468388E-01
    0.4122851688E-01
    0.4347079315E-01
    0.4571120322E-01
    0.4794943870E-01
    0.5018519235E-01
    0.5241815835E-01
    0.5464803238E-01
    0.5687451183E-01
    0.0000000000E+00
    0.2154052571E-04
    0.4766800168E-04
    0.7935275811E-04
    0.1177673549E-03
    0.1643272991E-03
    0.2207392842E-03
    0.2890580187E-03
    0.3717526929E-03
    0.4717840217E-03
    0.5926925088E-03
    0.7386980474E-03
    0.9148100625E-03
    0.1126945971E-02
    0.1382053598E-02
    0.1688230105E-02
    0.2054825774E-02
    0.2492515443E-02
    0.3013313520E-02
    0.3630500679E-02
    0.4358422408E-02
    0.5212113386E-02
    0.6206700176E-02
    0.7356542148E-02
    0.8674091913E-02
    0.1016849656E-01
    0.1184402111E-01
    0.1369845118E-01
    0.1572170835E-01
    0.1789496441E-01
    0.2019053881E-01
    0.2257278371E-01
    0.3000000000E-01
    0.3229924724E-01
    0.3459817519E-01
    0.3689646470E-01
    0.3919379701E-01
    0.4148985389E-01
    0.4378431779E-01
    0.4607687207E-01
    0.4836720113E-01
    0.5065499062E-01
    0.5293992756E-01
    0.5522170057E-01
    0.5750000000E-01
    0.0000000000E+00
    0.2154052571E-04
    0.4766800168E-04
    0.7935275811E-04
    0.1177673549E-03
    0.1643272991E-03
    0.2207392842E-03
    0.2890580187E-03
    0.3717526929E-03
    0.4717840217E-03
    0.5926925088E-03
    0.7386980474E-03
    0.9148100625E-03
    0.1126945971E-02
    0.1382053598E-02
    0.1688230105E-02
    0.2054825774E-02
    0.2492515443E-02
    0.3013313520E-02
    0.3630500679E-02
    0.4358422408E-02
    0.5212113386E-02
    0.6206700176E-02
    0.7356542148E-02
    0.8674091913E-02
    0.1016849656E-01
    0.1184402111E-01
    0.1369845118E-01
    0.1572170835E-01
    0.1789496441E-01
    0.2019053881E-01
    0.2257278371E-01
    0.3000000000E-01
    0.3235154368E-01
    0.3470276079E-01
    0.3705332496E-01
    0.3940291015E-01
    0.4175119089E-01
    0.4409784243E-01
    0.4644254092E-01
    0.4878496357E-01
    0.5112478888E-01
    0.5346169677E-01
    0.5579536877E-01
    0.5812548817E-01
    0.0000000000E+00
    0.2154052571E-04
    0.4766800168E-04
    0.7935275811E-04
    0.1177673549E-03
    0.1643272991E-03
    0.2207392842E-03
    0.2890580187E-03
    0.3717526929E-03
    0.4717840217E-03
    0.5926925088E-03
    0.7386980474E-03
    0.9148100625E-03
    0.1126945971E-02
    0.1382053598E-02
    0.1688230105E-02
    0.2054825774E-02
    0.2492515443E-02
    0.3013313520E-02
    0.3630500679E-02
    0.4358422408E-02
    0.5212113386E-02
    0.6206700176E-02
    0.7356542148E-02
    0.8674091913E-02
    0.1016849656E-01
    0.1184402111E-01
    0.1369845118E-01
    0.1572170835E-01
    0.1789496441E-01
    0.2019053881E-01
    0.2257278371E-01
    0.3000000000E-01
    0.3240382378E-01
    0.3480731373E-01
    0.3721013621E-01
    0.3961195796E-01
    0.4201244625E-01
    0.4441126913E-01
    0.4680809552E-01
    0.4920259549E-01
    0.5159444037E-01
    0.5398330297E-01
    0.5636885774E-01
    0.5875078092E-01
    0.0000000000E+00
    0.2154052571E-04
    0.4766800168E-04
    0.7935275811E-04
    0.1177673549E-03
    0.1643272991E-03
    0.2207392842E-03
    0.2890580187E-03
    0.3717526929E-03
    0.4717840217E-03
    0.5926925088E-03
    0.7386980474E-03
    0.9148100625E-03
    0.1126945971E-02
    0.1382053598E-02
    0.1688230105E-02
    0.2054825774E-02
    0.2492515443E-02
    0.3013313520E-02
    0.3630500679E-02
    0.4358422408E-02
    0.5212113386E-02
    0.6206700176E-02
    0.7356542148E-02
    0.8674091913E-02
    0.1016849656E-01
    0.1184402111E-01
    0.1369845118E-01
    0.1572170835E-01
    0.1789496441E-01
    0.2019053881E-01
    0.2257278371E-01
    0.3000000000E-01
    0.3245607122E-01
    0.3491180135E-01
    0.3736684951E-01
    0.3982087518E-01
    0.4227353842E-01
    0.4472450004E-01
    0.4717342178E-01
    0.4961996654E-01
    0.5206379850E-01
    0.5450458336E-01
    0.5694198848E-01
    0.5937568310E-01
    0.0000000000E+00
    0.2154052571E-04
    0.4766800168E-04
    0.7935275811E-04
    0.1177673549E-03
    0.1643272991E-03
    0.2207392842E-03
    0.2890580187E-03
    0.3717526929E-03
    0.4717840217E-03
    0.5926925088E-03
    0.7386980474E-03
    0.9148100625E-03
    0.1126945971E-02
    0.1382053598E-02
    0.1688230105E-02
    0.2054825774E-02
    0.2492515443E-02
    0.3013313520E-02
    0.3630500679E-02
    0.4358422408E-02
    0.5212113386E-02
    0.6206700176E-02
    0.7356542148E-02
    0.8674091913E-02
    0.1016849656E-01
    0.1184402111E-01
    0.1369845118E-01
    0.1572170835E-01
    0.1789496441E-01
    0.2019053881E-01
    0.2257278371E-01
    0.2500000000E-01
    0.2749681987E-01
    0.2999537320E-01
    0.3249531445E-01
    0.3499629732E-01
    0.3749797493E-01
    0.4000000000E-01
    0.4250202507E-01
    0.4500370268E-01
    0.4750468555E-01
    0.5000462680E-01
    0.5250318013E-01
    0.5500000000E-01
    0.0000000000E+00
    0.2154052571E-04
    0.4766800168E-04
    0.7935275811E-04
    0.1177673549E-03
    0.1643272991E-03
    0.2207392842E-03
    0.2890580187E-03
    0.3717526929E-03
    0.4717840217E-03
    0.5926925088E-03
    0.7386980474E-03
    0.9148100625E-03
    0.1126945971E-02
    0.1382053598E-02
    0.1688230105E-02
    0.2054825774E-02
    0.2492515443E-02
    0.3013313520E-02
    0.3630500679E-02
    0.4358422408E-02
    0.5212113386E-02
    0.6206700176E-02
    0.7356542148E-02
    0.8674091913E-02
    0.1016849656E-01
    0.1184402111E-01
    0.1369845118E-01
    0.1572170835E-01
    0.1789496441E-01
    0.2019053881E-01
    0.2257278371E-01
    0.2500000000E-01
    0.2740247634E-01
    0.2980662065E-01
    0.3221210043E-01
    0.3461858248E-01
    0.3702573301E-01
    0.3943321787E-01
    0.4184070274E-01
    0.4424785326E-01
    0.4665433531E-01
    0.4905981510E-01
    0.5146395940E-01
    0.5386643574E-01
    0.0000000000E+00
    0.2154052571E-04
    0.4766800168E-04
    0.7935275811E-04
    0.1177673549E-03
    0.1643272991E-03
    0.2207392842E-03
    0.2890580187E-03
    0.3717526929E-03
    0.4717840217E-03
    0.5926925088E-03
    0.7386980474E-03
    0.9148100625E-03
    0.1126945971E-02
    0.1382053598E-02
    0.1688230105E-02
    0.2054825774E-02
    0.2492515443E-02
    0.3013313520E-02
    0.3630500679E-02
    0.4358422408E-02
    0.5212113386E-02
    0.6206700176E-02
    0.7356542148E-02
    0.8674091913E-02
    0.1016849656E-01
    0.1184402111E-01
    0.1369845118E-01
    0.1572170835E-01
    0.1789496441E-01
    0.2019053881E-01
    0.2257278371E-01
    0.2500000000E-01
    0.2731721322E-01
    0.2963603521E-01
    0.3195614528E-01
    0.3427722205E-01
    0.3659894357E-01
    0.3892098756E-01
    0.4124303155E-01
    0.4356475308E-01
    0.4588582984E-01
    0.4820593991E-01
    0.5052476190E-01
    0.5284197512E-01
    0.0000000000E+00
    0.2154052571E-04
    0.4766800168E-04
    0.7935275811E-04
    0.1177673549E-03
    0.1643272991E-03
    0.2207392842E-03
    0.2890580187E-03
    0.3717526929E-03
    0.4717840217E-03
    0.5926925088E-03
    0.7386980474E-03
    0.9148100625E-03
    0.1126945971E-02
    0.1382053598E-02
    0.1688230105E-02
    0.2054825774E-02
    0.2492515443E-02
    0.3013313520E-02
    0.3630500679E-02
    0.4358422408E-02
    0.5212113386E-02
    0.6206700176E-02
    0.7356542148E-02
    0.8674091913E-02
    0.1016849656E-01
    0.1184402111E-01
    0.1369845118E-01
    0.1572170835E-01
    0.1789496441E-01
    0.2019053881E-01
    0.2257278371E-01
    0.2500000000E-01
    0.2724692195E-01
    0.2949540386E-01
    0.3174513478E-01
    0.3399580308E-01
    0.3624709657E-01
    0.3849870274E-01
    0.4075030892E-01
    0.4300160241E-01
    0.4525227070E-01
    0.4750200163E-01
    0.4975048354E-01
    0.5199740549E-01
    0.0000000000E+00
    0.2154052571E-04
    0.4766800168E-04
    0.7935275811E-04
    0.1177673549E-03
    0.1643272991E-03
    0.2207392842E-03
    0.2890580187E-03
    0.3717526929E-03
    0.4717840217E-03
    0.5926925088E-03
    0.7386980474E-03
    0.9148100625E-03
    0.1126945971E-02
    0.1382053598E-02
    0.1688230105E-02
    0.2054825774E-02
    0.2492515443E-02
    0.3013313520E-02
    0.3630500679E-02
    0.4358422408E-02
    0.5212113386E-02
    0.6206700176E-02
    0.7356542148E-02
    0.8674091913E-02
    0.1016849656E-01
    0.1184402111E-01
    0.1369845118E-01
    0.1572170835E-01
    0.1789496441E-01
    0.2019053881E-01
    0.2257278371E-01
    0.2500000000E-01
    0.2719323356E-01
    0.2938798982E-01
    0.3158396524E-01
    0.3378085564E-01
    0.3597835629E-01
    0.3817616216E-01
    0.4037396803E-01
    0.4257146868E-01
    0.4476835907E-01
    0.4696433450E-01
    0.4915909075E-01
    0.5135232432E-01
    0.0000000000E+00
    0.2154052571E-04
    0.4766800168E-04
    0.7935275811E-04
    0.1177673549E-03
    0.1643272991E-03
    0.2207392842E-03
    0.2890580187E-03
    0.3717526929E-03
    0.4717840217E-03
    0.5926925088E-03
    0.7386980474E-03
    0.9148100625E-03
    0.1126945971E-02
    0.1382053598E-02
    0.1688230105E-02
    0.2054825774E-02
    0.2492515443E-02
    0.3013313520E-02
    0.3630500679E-02
    0.4358422408E-02
    0.5212113386E-02
    0.6206700176E-02
    0.7356542148E-02
    0.8674091913E-02
    0.1016849656E-01
    0.1184402111E-01
    0.1369845118E-01
    0.1572170835E-01
    0.1789496441E-01
    0.2019053881E-01
    0.2257278371E-01
    0.2500000000E-01
    0.2715456969E-01
    0.2931063523E-01
    0.3146789845E-01
    0.3362606050E-01
    0.3578482206E-01
    0.3794388346E-01
    0.4010294485E-01
    0.4226170641E-01
    0.4441986846E-01
    0.4657713168E-01
    0.4873319722E-01
    0.5088776691E-01
    0.0000000000E+00
    0.2154052571E-04
    0.4766800168E-04
    0.7935275811E-04
    0.1177673549E-03
    0.1643272991E-03
    0.2207392842E-03
    0.2890580187E-03
    0.3717526929E-03
    0.4717840217E-03
    0.5926925088E-03
    0.7386980474E-03
    0.9148100625E-03
    0.1126945971E-02
    0.1382053598E-02
    0.1688230105E-02
    0.2054825774E-02
    0.2492515443E-02
    0.3013313520E-02
    0.3630500679E-02
    0.4358422408E-02
    0.5212113386E-02
    0.6206700176E-02
    0.7356542148E-02
    0.8674091913E-02
    0.1016849656E-01
    0.1184402111E-01
    0.1369845118E-01
    0.1572170835E-01
    0.1789496441E-01
    0.2019053881E-01
    0.2257278371E-01
    0.2500000000E-01
    0.2712789021E-01
    0.2925725774E-01
    0.3138780812E-01
    0.3351924620E-01
    0.3565127637E-01
    0.3778360266E-01
    0.3991592894E-01
    0.4204795911E-01
    0.4417939720E-01
    0.4630994757E-01
    0.4843931511E-01
    0.5056720531E-01
    0.0000000000E+00
    0.2154052571E-04
    0.4766800168E-04
    0.7935275811E-04
    0.1177673549E-03
    0.1643272991E-03
    0.2207392842E-03
    0.2890580187E-03
    0.3717526929E-03
    0.4717840217E-03
    0.5926925088E-03
    0.7386980474E-03
    0.9148100625E-03
    0.1126945971E-02
    0.1382053598E-02
    0.1688230105E-02
    0.2054825774E-02
    0.2492515443E-02
    0.3013313520E-02
    0.3630500679E-02
    0.4358422408E-02
    0.5212113386E-02
    0.6206700176E-02
    0.7356542148E-02
    0.8674091913E-02
    0.1016849656E-01
    0.1184402111E-01
    0.1369845118E-01
    0.1572170835E-01
    0.1789496441E-01
    0.2019053881E-01
    0.2257278371E-01
    0.2500000000E-01
    0.2711001862E-01
    0.2922150216E-01
    0.3133415861E-01
    0.3344769531E-01
    0.3556181912E-01
    0.3767623657E-01
    0.3979065401E-01
    0.4190477782E-01
    0.4401831453E-01
    0.4613097098E-01
    0.4824245452E-01
    0.5035247314E-01
    0.0000000000E+00
    0.2154052571E-04
    0.4766800168E-04
    0.7935275811E-04
    0.1177673549E-03
    0.1643272991E-03
    0.2207392842E-03
    0.2890580187E-03
    0.3717526929E-03
    0.4717840217E-03
    0.5926925088E-03
    0.7386980474E-03
    0.9148100625E-03
    0.1126945971E-02
    0.1382053598E-02
    0.1688230105E-02
    0.2054825774E-02
    0.2492515443E-02
    0.3013313520E-02
    0.3630500679E-02
    0.4358422408E-02
    0.5212113386E-02
    0.6206700176E-02
    0.7356542148E-02
    0.8674091913E-02
    0.1016849656E-01
    0.1184402111E-01
    0.1369845118E-01
    0.1572170835E-01
    0.1789496441E-01
    0.2019053881E-01
    0.2257278371E-01
    0.2500000000E-01
    0.2709828386E-01
    0.2919802448E-01
    0.3129893150E-01
    0.3340071387E-01
    0.3550308008E-01
    0.3760573830E-01
    0.3970839652E-01
    0.4181076273E-01
    0.4391254510E-01
    0.4601345212E-01
    0.4811319274E-01
    0.5021147660E-01
    0.0000000000E+00
    0.2154052571E-04
    0.4766800168E-04
    0.7935275811E-04
    0.1177673549E-03
    0.1643272991E-03
    0.2207392842E-03
    0.2890580187E-03
    0.3717526929E-03
    0.4717840217E-03
    0.5926925088E-03
    0.7386980474E-03
    0.9148100625E-03
    0.1126945971E-02
    0.1382053598E-02
    0.1688230105E-02
    0.2054825774E-02
    0.2492515443E-02
    0.3013313520E-02
    0.3630500679E-02
    0.4358422408E-02
    0.5212113386E-02
    0.6206700176E-02
    0.7356542148E-02
    0.8674091913E-02
    0.1016849656E-01
    0.1184402111E-01
    0.1369845118E-01
    0.1572170835E-01
    0.1789496441E-01
    0.2019053881E-01
    0.2257278371E-01
    0.2500000000E-01
    0.2709067936E-01
    0.2918281021E-01
    0.3127610322E-01
    0.3337026841E-01
    0.3546501533E-01
    0.3756005320E-01
    0.3965509106E-01
    0.4174983799E-01
    0.4384400318E-01
    0.4593729619E-01
    0.4802942704E-01
    0.5012010640E-01
    0.0000000000E+00
    0.2154052571E-04
    0.4766800168E-04
    0.7935275811E-04
    0.1177673549E-03
    0.1643272991E-03
    0.2207392842E-03
    0.2890580187E-03
    0.3717526929E-03
    0.4717840217E-03
    0.5926925088E-03
    0.7386980474E-03
    0.9148100625E-03
    0.1126945971E-02
    0.1382053598E-02
    0.1688230105E-02
    0.2054825774E-02
    0.2492515443E-02
    0.3013313520E-02
    0.3630500679E-02
    0.4358422408E-02
    0.5212113386E-02
    0.6206700176E-02
    0.7356542148E-02
    0.8674091913E-02
    0.1016849656E-01
    0.1184402111E-01
    0.1369845118E-01
    0.1572170835E-01
    0.1789496441E-01
    0.2019053881E-01
    0.2257278371E-01
    0.2500000000E-01
    0.2708579335E-01
    0.2917303479E-01
    0.3126143568E-01
    0.3335070672E-01
    0.3544055812E-01
    0.3753069979E-01
    0.3962084146E-01
    0.4171069286E-01
    0.4379996390E-01
    0.4588836479E-01
    0.4797560623E-01
    0.5006139958E-01
    0.0000000000E+00
    0.2154052571E-04
    0.4766800168E-04
    0.7935275811E-04
    0.1177673549E-03
    0.1643272991E-03
    0.2207392842E-03
    0.2890580187E-03
    0.3717526929E-03
    0.4717840217E-03
    0.5926925088E-03
    0.7386980474E-03
    0.9148100625E-03
    0.1126945971E-02
    0.1382053598E-02
    0.1688230105E-02
    0.2054825774E-02
    0.2492515443E-02
    0.3013313520E-02
    0.3630500679E-02
    0.4358422408E-02
    0.5212113386E-02
    0.6206700176E-02
    0.7356542148E-02
    0.8674091913E-02
    0.1016849656E-01
    0.1184402111E-01
    0.1369845118E-01
    0.1572170835E-01
    0.1789496441E-01
    0.2019053881E-01
    0.2257278371E-01
    0.2500000000E-01
    0.2708267123E-01
    0.2916678838E-01
    0.3125206325E-01
    0.3333820696E-01
    0.3542493017E-01
    0.3751194321E-01
    0.3959895625E-01
    0.4168567945E-01
    0.4377182317E-01
    0.4585709803E-01
    0.4794121519E-01
    0.5002388642E-01
    0.0000000000E+00
    0.2154052571E-04
    0.4766800168E-04
    0.7935275811E-04
    0.1177673549E-03
    0.1643272991E-03
    0.2207392842E-03
    0.2890580187E-03
    0.3717526929E-03
    0.4717840217E-03
    0.5926925088E-03
    0.7386980474E-03
    0.9148100625E-03
    0.1126945971E-02
    0.1382053598E-02
    0.1688230105E-02
    0.2054825774E-02
    0.2492515443E-02
    0.3013313520E-02
    0.3630500679E-02
    0.4358422408E-02
    0.5212113386E-02
    0.6206700176E-02
    0.7356542148E-02
    0.8674091913E-02
    0.1016849656E-01
    0.1184402111E-01
    0.1369845118E-01
    0.1572170835E-01
    0.1789496441E-01
    0.2019053881E-01
    0.2257278371E-01
    0.2500000000E-01
    0.2708068322E-01
    0.2916281100E-01
    0.3124609538E-01
    0.3333024777E-01
    0.3541497911E-01
    0.3750000000E-01
    0.3958502089E-01
    0.4166975223E-01
    0.4375390462E-01
    0.4583718900E-01
    0.4791931678E-01
    0.5000000000E-01
    0.0000000000E+00
    0.0000000000E+00
    0.0000000000E+00
    0.0000000000E+00
    0.0000000000E+00
    0.0000000000E+00
    0.0000000000E+00
    0.0000000000E+00
    0.0000000000E+00
    0.0000000000E+00
    0.0000000000E+00
    0.0000000000E+00
    0.0000000000E+00
    0.0000000000E+00
    0.0000000000E+00
    0.0000000000E+00
    0.0000000000E+00
    0.0000000000E+00
    0.0000000000E+00
    0.0000000000E+00
    0.0000000000E+00
    0.0000000000E+00
    0.0000000000E+00
    0.0000000000E+00
    0.0000000000E+00
    0.0000000000E+00
    0.0000000000E+00
    0.0000000000E+00
    0.0000000000E+00
    0.0000000000E+00
    0.0000000000E+00
    0.0000000000E+00
    0.0000000000E+00
    0.0000000000E+00
    0.0000000000E+00
    0.0000000000E+00
    0.0000000000E+00
    0.0000000000E+00
    0.0000000000E+00
    0.0000000000E+00
    0.0000000000E+00
    0.0000000000E+00
    0.0000000000E+00
    0.0000000000E+00
    0.0000000000E+00
    0.9364753566E-03
    0.9364753566E-03
    0.9364753566E-03
    0.9364753566E-03
    0.9364753566E-03
    0.9364753566E-03
    0.9364753566E-03
    0.9364753566E-03
    0.9364753566E-03
    0.9364753566E-03
    0.9364753566E-03
    0.9364753566E-03
    0.9364753566E-03
    0.9364753566E-03
    0.9364753566E-03
    0.9364753566E-03
    0.9364753566E-03
    0.9364753566E-03
    0.9364753566E-03
    0.9364753566E-03
    0.9364753566E-03
    0.9364753566E-03
    0.9364753566E-03
    0.9364753566E-03
    0.9364753566E-03
    0.9364753566E-03
    0.9364753566E-03
    0.9364753566E-03
    0.9364753566E-03
    0.9364753566E-03
    0.9364753566E-03
    0.9364753566E-03
    0.9364753566E-03
    0.9364753566E-03
    0.9364753566E-03
    0.9364753566E-03
    0.9364753566E-03
    0.9364753566E-03
    0.9364753566E-03
    0.9364753566E-03
    0.9364753566E-03
    0.9364753566E-03
    0.9364753566E-03
    0.9364753566E-03
    0.9364753566E-03
    0.1873828613E-02
    0.1873828613E-02
    0.1873828613E-02
    0.1873828613E-02
    0.1873828613E-02
    0.1873828613E-02
    0.1873828613E-02
    0.1873828613E-02
    0.1873828613E-02
    0.1873828613E-02
    0.1873828613E-02
    0.1873828613E-02
    0.1873828613E-02
    0.1873828613E-02
    0.1873828613E-02
    0.1873828613E-02
    0.1873828613E-02
    0.1873828613E-02
    0.1873828613E-02
    0.1873828613E-02
    0.1873828613E-02
    0.1873828613E-02
    0.1873828613E-02
    0.1873828613E-02
    0.1873828613E-02
    0.1873828613E-02
    0.1873828613E-02
    0.1873828613E-02
    0.1873828613E-02
    0.1873828613E-02
    0.1873828613E-02
    0.1873828613E-02
    0.1873828613E-02
    0.1873828613E-02
    0.1873828613E-02
    0.1873828613E-02
    0.1873828613E-02
    0.1873828613E-02
    0.1873828613E-02
    0.1873828613E-02
    0.1873828613E-02
    0.1873828613E-02
    0.1873828613E-02
    0.1873828613E-02
    0.1873828613E-02
    0.2811767746E-02
    0.2811767746E-02
    0.2811767746E-02
    0.2811767746E-02
    0.2811767746E-02
    0.2811767746E-02
    0.2811767746E-02
    0.2811767746E-02
    0.2811767746E-02
    0.2811767746E-02
    0.2811767746E-02
    0.2811767746E-02
    0.2811767746E-02
    0.2811767746E-02
    0.2811767746E-02
    0.2811767746E-02
    0.2811767746E-02
    0.2811767746E-02
    0.2811767746E-02
    0.2811767746E-02
    0.2811767746E-02
    0.2811767746E-02
    0.2811767746E-02
    0.2811767746E-02
    0.2811767746E-02
    0.2811767746E-02
    0.2811767746E-02
    0.2811767746E-02
    0.2811767746E-02
    0.2811767746E-02
    0.2811767746E-02
    0.2811767746E-02
    0.2811767746E-02
    0.2811767746E-02
    0.2811767746E-02
    0.2811767746E-02
    0.2811767746E-02
    0.2811767746E-02
    0.2811767746E-02
    0.2811767746E-02
    0.2811767746E-02
    0.2811767746E-02
    0.2811767746E-02
    0.2811767746E-02
    0.2811767746E-02
    0.3750000000E-02
    0.3750000000E-02
    0.3750000000E-02
    0.3750000000E-02
    0.3750000000E-02
    0.3750000000E-02
    0.3750000000E-02
    0.3750000000E-02
    0.3750000000E-02
    0.3750000000E-02
    0.3750000000E-02
    0.3750000000E-02
    0.3750000000E-02
    0.3750000000E-02
    0.3750000000E-02
    0.3750000000E-02
    0.3750000000E-02
    0.3750000000E-02
    0.3750000000E-02
    0.3750000000E-02
    0.3750000000E-02
    0.3750000000E-02
    0.3750000000E-02
    0.3750000000E-02
    0.3750000000E-02
    0.3750000000E-02
    0.3750000000E-02
    0.3750000000E-02
    0.3750000000E-02
    0.3750000000E-02
    0.3750000000E-02
    0.3750000000E-02
    0.3750000000E-02
    0.3750000000E-02
    0.3750000000E-02
    0.3750000000E-02
    0.3750000000E-02
    0.3750000000E-02
    0.3750000000E-02
    0.3750000000E-02
    0.3750000000E-02
    0.3750000000E-02
    0.3750000000E-02
    0.3750000000E-02
    0.3750000000E-02
    0.4688232254E-02
    0.4688232254E-02
    0.4688232254E-02
    0.4688232254E-02
    0.4688232254E-02
    0.4688232254E-02
    0.4688232254E-02
    0.4688232254E-02
    0.4688232254E-02
    0.4688232254E-02
    0.4688232254E-02
    0.4688232254E-02
    0.4688232254E-02
    0.4688232254E-02
    0.4688232254E-02
    0.4688232254E-02
    0.4688232254E-02
    0.4688232254E-02
    0.4688232254E-02
    0.4688232254E-02
    0.4688232254E-02
    0.4688232254E-02
    0.4688232254E-02
    0.4688232254E-02
    0.4688232254E-02
    0.4688232254E-02
    0.4688232254E-02
    0.4688232254E-02
    0.4688232254E-02
    0.4688232254E-02
    0.4688232254E-02
    0.4688232254E-02
    0.4688232254E-02
    0.4688232254E-02
    0.4688232254E-02
    0.4688232254E-02
    0.4688232254E-02
    0.4688232254E-02
    0.4688232254E-02
    0.4688232254E-02
    0.4688232254E-02
    0.4688232254E-02
    0.4688232254E-02
    0.4688232254E-02
    0.4688232254E-02
    0.5626171387E-02
    0.5626171387E-02
    0.5626171387E-02
    0.5626171387E-02
    0.5626171387E-02
    0.5626171387E-02
    0.5626171387E-02
    0.5626171387E-02
    0.5626171387E-02
    0.5626171387E-02
    0.5626171387E-02
    0.5626171387E-02
    0.5626171387E-02
    0.5626171387E-02
    0.5626171387E-02
    0.5626171387E-02
    0.5626171387E-02
    0.5626171387E-02
    0.5626171387E-02
    0.5626171387E-02
    0.5626171387E-02
    0.5626171387E-02
    0.5626171387E-02
    0.5626171387E-02
    0.5626171387E-02
    0.5626171387E-02
    0.5626171387E-02
    0.5626171387E-02
    0.5626171387E-02
    0.5626171387E-02
    0.5626171387E-02
    0.5626171387E-02
    0.5626171387E-02
    0.5626171387E-02
    0.5626171387E-02
    0.5626171387E-02
    0.5626171387E-02
    0.5626171387E-02
    0.5626171387E-02
    0.5626171387E-02
    0.5626171387E-02
    0.5626171387E-02
    0.5626171387E-02
    0.5626171387E-02
    0.5626171387E-02
    0.6563524643E-02
    0.6563524643E-02
    0.6563524643E-02
    0.6563524643E-02
    0.6563524643E-02
    0.6563524643E-02
    0.6563524643E-02
    0.6563524643E-02
    0.6563524643E-02
    0.6563524643E-02
    0.6563524643E-02
    0.6563524643E-02
    0.6563524643E-02
    0.6563524643E-02
    0.6563524643E-02
    0.6563524643E-02
    0.6563524643E-02
    0.6563524643E-02
    0.6563524643E-02
    0.6563524643E-02
    0.6563524643E-02
    0.6563524643E-02
    0.6563524643E-02
    0.6563524643E-02
    0.6563524643E-02
    0.6563524643E-02
    0.6563524643E-02
    0.6563524643E-02
    0.6563524643E-02
    0.6563524643E-02
    0.6563524643E-02
    0.6563524643E-02
    0.6563524643E-02
    0.6563524643E-02
    0.6563524643E-02
    0.6563524643E-02
    0.6563524643E-02
    0.6563524643E-02
    0.6563524643E-02
    0.6563524643E-02
    0.6563524643E-02
    0.6563524643E-02
    0.6563524643E-02
    0.6563524643E-02
    0.6563524643E-02
    0.7500000000E-02
    0.7500000000E-02
    0.7500000000E-02
    0.7500000000E-02
    0.7500000000E-02
    0.7500000000E-02
    0.7500000000E-02
    0.7500000000E-02
    0.7500000000E-02
    0.7500000000E-02
    0.7500000000E-02
    0.7500000000E-02
    0.7500000000E-02
    0.7500000000E-02
    0.7500000000E-02
    0.7500000000E-02
    0.7500000000E-02
    0.7500000000E-02
    0.7500000000E-02
    0.7500000000E-02
    0.7500000000E-02
    0.7500000000E-02
    0.7500000000E-02
    0.7500000000E-02
    0.7500000000E-02
    0.7500000000E-02
    0.7500000000E-02
    0.7500000000E-02
    0.7500000000E-02
    0.7500000000E-02
    0.7500000000E-02
    0.7500000000E-02
    0.7500000000E-02
    0.7500000000E-02
    0.7500000000E-02
    0.7500000000E-02
    0.7500000000E-02
    0.7500000000E-02
    0.7500000000E-02
    0.7500000000E-02
    0.7500000000E-02
    0.7500000000E-02
    0.7500000000E-02
    0.7500000000E-02
    0.7500000000E-02
    0.8633564255E-02
    0.8633564255E-02
    0.8633564255E-02
    0.8633564255E-02
    0.8633564255E-02
    0.8633564255E-02
    0.8633564255E-02
    0.8633564255E-02
    0.8633564255E-02
    0.8633564255E-02
    0.8633564255E-02
    0.8633564255E-02
    0.8633564255E-02
    0.8633564255E-02
    0.8633564255E-02
    0.8633564255E-02
    0.8633564255E-02
    0.8633564255E-02
    0.8633564255E-02
    0.8633564255E-02
    0.8633564255E-02
    0.8633564255E-02
    0.8633564255E-02
    0.8633564255E-02
    0.8633564255E-02
    0.8633564255E-02
    0.8633564255E-02
    0.8633564255E-02
    0.8633564255E-02
    0.8633564255E-02
    0.8633564255E-02
    0.8633564255E-02
    0.8633564255E-02
    0.8633564255E-02
    0.8633564255E-02
    0.8633564255E-02
    0.8633564255E-02
    0.8633564255E-02
    0.8633564255E-02
    0.8633564255E-02
    0.8633564255E-02
    0.8633564255E-02
    0.8633564255E-02
    0.8633564255E-02
    0.8633564255E-02
    0.9658024877E-02
    0.9658024877E-02
    0.9658024877E-02
    0.9658024877E-02
    0.9658024877E-02
    0.9658024877E-02
    0.9658024877E-02
    0.9658024877E-02
    0.9658024877E-02
    0.9658024877E-02
    0.9658024877E-02
    0.9658024877E-02
    0.9658024877E-02
    0.9658024877E-02
    0.9658024877E-02
    0.9658024877E-02
    0.9658024877E-02
    0.9658024877E-02
    0.9658024877E-02
    0.9658024877E-02
    0.9658024877E-02
    0.9658024877E-02
    0.9658024877E-02
    0.9658024877E-02
    0.9658024877E-02
    0.9658024877E-02