 TITLE     = "Mesh"
 VARIABLES = "x"
 "y"
 ZONE T="Block            1 "
 I=  57, J=  37, K= 1, ZONETYPE=Ordered
 DATAPACKING=BLOCK
 DT=(SINGLE SINGLE)
    0.0000000000E+00
    0.9375000000E-03
    0.1875000000E-02
    0.2812500000E-02
    0.3750000000E-02
    0.4687500000E-02
    0.5625000000E-02
    0.6562500000E-02
    0.7500000000E-02
    0.8437500000E-02
    0.9375000000E-02
    0.1031250000E-01
    0.1125000000E-01
    0.1218750000E-01
    0.1312500000E-01
    0.1406250000E-01
    0.1500000000E-01
    0.1593750000E-01
    0.1687500000E-01
    0.1781250000E-01
    0.1875000000E-01
    0.1968750000E-01
    0.2062500000E-01
    0.2156250000E-01
    0.2250000000E-01
    0.2343750000E-01
    0.2437500000E-01
    0.2531250000E-01
    0.2625000000E-01
    0.2718750000E-01
    0.2812500000E-01
    0.2906250000E-01
    0.3000000000E-01
    0.3104513053E-01
    0.3209022477E-01
    0.3313524644E-01
    0.3418015926E-01
    0.3522492698E-01
    0.3626951336E-01
    0.3731388219E-01
    0.3835799728E-01
    0.3940182250E-01
    0.4044532172E-01
    0.4148845888E-01
    0.4253119799E-01
    0.4357350308E-01
    0.4461533824E-01
    0.4565666767E-01
    0.4669745558E-01
    0.4773766629E-01
    0.4877726420E-01
    0.4981621378E-01
    0.5085447960E-01
    0.5189202632E-01
    0.5292881870E-01
    0.5396482160E-01
    0.5500000000E-01
    0.0000000000E+00
    0.9375000000E-03
    0.1875000000E-02
    0.2812500000E-02
    0.3750000000E-02
    0.4687500000E-02
    0.5625000000E-02
    0.6562500000E-02
    0.7500000000E-02
    0.8437500000E-02
    0.9375000000E-02
    0.1031250000E-01
    0.1125000000E-01
    0.1218750000E-01
    0.1312500000E-01
    0.1406250000E-01
    0.1500000000E-01
    0.1593750000E-01
    0.1687500000E-01
    0.1781250000E-01
    0.1875000000E-01
    0.1968750000E-01
    0.2062500000E-01
    0.2156250000E-01
    0.2250000000E-01
    0.2343750000E-01
    0.2437500000E-01
    0.2531250000E-01
    0.2625000000E-01
    0.2718750000E-01
    0.2812500000E-01
    0.2906250000E-01
    0.3000000000E-01
    0.3104513053E-01
    0.3209022477E-01
    0.3313524644E-01
    0.3418015926E-01
    0.3522492698E-01
    0.3626951336E-01
    0.3731388219E-01
    0.3835799728E-01
    0.3940182250E-01
    0.4044532172E-01
    0.4148845888E-01
    0.4253119799E-01
    0.4357350308E-01
    0.4461533824E-01
    0.4565666767E-01
    0.4669745558E-01
    0.4773766629E-01
    0.4877726420E-01
    0.4981621378E-01
    0.5085447960E-01
    0.5189202632E-01
    0.5292881870E-01
    0.5396482160E-01
    0.5500000000E-01
    0.0000000000E+00
    0.9375000000E-03
    0.1875000000E-02
    0.2812500000E-02
    0.3750000000E-02
    0.4687500000E-02
    0.5625000000E-02
    0.6562500000E-02
    0.7500000000E-02
    0.8437500000E-02
    0.9375000000E-02
    0.1031250000E-01
    0.1125000000E-01
    0.1218750000E-01
    0.1312500000E-01
    0.1406250000E-01
    0.1500000000E-01
    0.1593750000E-01
    0.1687500000E-01
    0.1781250000E-01
    0.1875000000E-01
    0.1968750000E-01
    0.2062500000E-01
    0.2156250000E-01
    0.2250000000E-01
    0.2343750000E-01
    0.2437500000E-01
    0.2531250000E-01
    0.2625000000E-01
    0.2718750000E-01
    0.2812500000E-01
    0.2906250000E-01
    0.3000000000E-01
    0.3104513053E-01
    0.3209022477E-01
    0.3313524644E-01
    0.3418015926E-01
    0.3522492698E-01
    0.3626951336E-01
    0.3731388219E-01
    0.3835799728E-01
    0.3940182250E-01
    0.4044532172E-01
    0.4148845888E-01
    0.4253119799E-01
    0.4357350308E-01
    0.4461533824E-01
    0.4565666767E-01
    0.4669745558E-01
    0.4773766629E-01
    0.4877726420E-01
    0.4981621378E-01
    0.5085447960E-01
    0.5189202632E-01
    0.5292881870E-01
    0.5396482160E-01
    0.5500000000E-01
    0.0000000000E+00
    0.9375000000E-03
    0.1875000000E-02
    0.2812500000E-02
    0.3750000000E-02
    0.4687500000E-02
    0.5625000000E-02
    0.6562500000E-02
    0.7500000000E-02
    0.8437500000E-02
    0.9375000000E-02
    0.1031250000E-01
    0.1125000000E-01
    0.1218750000E-01
    0.1312500000E-01
    0.1406250000E-01
    0.1500000000E-01
    0.1593750000E-01
    0.1687500000E-01
    0.1781250000E-01
    0.1875000000E-01
    0.1968750000E-01
    0.2062500000E-01
    0.2156250000E-01
    0.2250000000E-01
    0.2343750000E-01
    0.2437500000E-01
    0.2531250000E-01
    0.2625000000E-01
    0.2718750000E-01
    0.2812500000E-01
    0.2906250000E-01
    0.3000000000E-01
    0.3104513053E-01
    0.3209022477E-01
    0.3313524644E-01
    0.3418015926E-01
    0.3522492698E-01
    0.3626951336E-01
    0.3731388219E-01
    0.3835799728E-01
    0.3940182250E-01
    0.4044532172E-01
    0.4148845888E-01
    0.4253119799E-01
    0.4357350308E-01
    0.4461533824E-01
    0.4565666767E-01
    0.4669745558E-01
    0.4773766629E-01
    0.4877726420E-01
    0.4981621378E-01
    0.5085447960E-01
    0.5189202632E-01
    0.5292881870E-01
    0.5396482160E-01
    0.5500000000E-01
    0.0000000000E+00
    0.9375000000E-03
    0.1875000000E-02
    0.2812500000E-02
    0.3750000000E-02
    0.4687500000E-02
    0.5625000000E-02
    0.6562500000E-02
    0.7500000000E-02
    0.8437500000E-02
    0.9375000000E-02
    0.1031250000E-01
    0.1125000000E-01
    0.1218750000E-01
    0.1312500000E-01
    0.1406250000E-01
    0.1500000000E-01
    0.1593750000E-01
    0.1687500000E-01
    0.1781250000E-01
    0.1875000000E-01
    0.1968750000E-01
    0.2062500000E-01
    0.2156250000E-01
    0.2250000000E-01
    0.2343750000E-01
    0.2437500000E-01
    0.2531250000E-01
    0.2625000000E-01
    0.2718750000E-01
    0.2812500000E-01
    0.2906250000E-01
    0.3000000000E-01
    0.3104513053E-01
    0.3209022477E-01
    0.3313524644E-01
    0.3418015926E-01
    0.3522492698E-01
    0.3626951336E-01
    0.3731388219E-01
    0.3835799728E-01
    0.3940182250E-01
    0.4044532172E-01
    0.4148845888E-01
    0.4253119799E-01
    0.4357350308E-01
    0.4461533824E-01
    0.4565666767E-01
    0.4669745558E-01
    0.4773766629E-01
    0.4877726420E-01
    0.4981621378E-01
    0.5085447960E-01
    0.5189202632E-01
    0.5292881870E-01
    0.5396482160E-01
    0.5500000000E-01
    0.0000000000E+00
    0.9375000000E-03
    0.1875000000E-02
    0.2812500000E-02
    0.3750000000E-02
    0.4687500000E-02
    0.5625000000E-02
    0.6562500000E-02
    0.7500000000E-02
    0.8437500000E-02
    0.9375000000E-02
    0.1031250000E-01
    0.1125000000E-01
    0.1218750000E-01
    0.1312500000E-01
    0.1406250000E-01
    0.1500000000E-01
    0.1593750000E-01
    0.1687500000E-01
    0.1781250000E-01
    0.1875000000E-01
    0.1968750000E-01
    0.2062500000E-01
    0.2156250000E-01
    0.2250000000E-01
    0.2343750000E-01
    0.2437500000E-01
    0.2531250000E-01
    0.2625000000E-01
    0.2718750000E-01
    0.2812500000E-01
    0.2906250000E-01
    0.3000000000E-01
    0.3104513053E-01
    0.3209022477E-01
    0.3313524644E-01
    0.3418015926E-01
    0.3522492698E-01
    0.3626951336E-01
    0.3731388219E-01
    0.3835799728E-01
    0.3940182250E-01
    0.4044532172E-01
    0.4148845888E-01
    0.4253119799E-01
    0.4357350308E-01
    0.4461533824E-01
    0.4565666767E-01
    0.4669745558E-01
    0.4773766629E-01
    0.4877726420E-01
    0.4981621378E-01
    0.5085447960E-01
    0.5189202632E-01
    0.5292881870E-01
    0.5396482160E-01
    0.5500000000E-01
    0.0000000000E+00
    0.9375000000E-03
    0.1875000000E-02
    0.2812500000E-02
    0.3750000000E-02
    0.4687500000E-02
    0.5625000000E-02
    0.6562500000E-02
    0.7500000000E-02
    0.8437500000E-02
    0.9375000000E-02
    0.1031250000E-01
    0.1125000000E-01
    0.1218750000E-01
    0.1312500000E-01
    0.1406250000E-01
    0.1500000000E-01
    0.1593750000E-01
    0.1687500000E-01
    0.1781250000E-01
    0.1875000000E-01
    0.1968750000E-01
    0.2062500000E-01
    0.2156250000E-01
    0.2250000000E-01
    0.2343750000E-01
    0.2437500000E-01
    0.2531250000E-01
    0.2625000000E-01
    0.2718750000E-01
    0.2812500000E-01
    0.2906250000E-01
    0.3000000000E-01
    0.3104513053E-01
    0.3209022477E-01
    0.3313524644E-01
    0.3418015926E-01
    0.3522492698E-01
    0.3626951336E-01
    0.3731388219E-01
    0.3835799728E-01
    0.3940182250E-01
    0.4044532172E-01
    0.4148845888E-01
    0.4253119799E-01
    0.4357350308E-01
    0.4461533824E-01
    0.4565666767E-01
    0.4669745558E-01
    0.4773766629E-01
    0.4877726420E-01
    0.4981621378E-01
    0.5085447960E-01
    0.5189202632E-01
    0.5292881870E-01
    0.5396482160E-01
    0.5500000000E-01
    0.0000000000E+00
    0.9375000000E-03
    0.1875000000E-02
    0.2812500000E-02
    0.3750000000E-02
    0.4687500000E-02
    0.5625000000E-02
    0.6562500000E-02
    0.7500000000E-02
    0.8437500000E-02
    0.9375000000E-02
    0.1031250000E-01
    0.1125000000E-01
    0.1218750000E-01
    0.1312500000E-01
    0.1406250000E-01
    0.1500000000E-01
    0.1593750000E-01
    0.1687500000E-01
    0.1781250000E-01
    0.1875000000E-01
    0.1968750000E-01
    0.2062500000E-01
    0.2156250000E-01
    0.2250000000E-01
    0.2343750000E-01
    0.2437500000E-01
    0.2531250000E-01
    0.2625000000E-01
    0.2718750000E-01
    0.2812500000E-01
    0.2906250000E-01
    0.3000000000E-01
    0.3104513053E-01
    0.3209022477E-01
    0.3313524644E-01
    0.3418015926E-01
    0.3522492698E-01
    0.3626951336E-01
    0.3731388219E-01
    0.3835799728E-01
    0.3940182250E-01
    0.4044532172E-01
    0.4148845888E-01
    0.4253119799E-01
    0.4357350308E-01
    0.4461533824E-01
    0.4565666767E-01
    0.4669745558E-01
    0.4773766629E-01
    0.4877726420E-01
    0.4981621378E-01
    0.5085447960E-01
    0.5189202632E-01
    0.5292881870E-01
    0.5396482160E-01
    0.5500000000E-01
    0.0000000000E+00
    0.9375000000E-03
    0.1875000000E-02
    0.2812500000E-02
    0.3750000000E-02
    0.4687500000E-02
    0.5625000000E-02
    0.6562500000E-02
    0.7500000000E-02
    0.8437500000E-02
    0.9375000000E-02
    0.1031250000E-01
    0.1125000000E-01
    0.1218750000E-01
    0.1312500000E-01
    0.1406250000E-01
    0.1500000000E-01
    0.1593750000E-01
    0.1687500000E-01
    0.1781250000E-01
    0.1875000000E-01
    0.1968750000E-01
    0.2062500000E-01
    0.2156250000E-01
    0.2250000000E-01
    0.2343750000E-01
    0.2437500000E-01
    0.2531250000E-01
    0.2625000000E-01
    0.2718750000E-01
    0.2812500000E-01
    0.2906250000E-01
    0.3000000000E-01
    0.3104513053E-01
    0.3209022477E-01
    0.3313524644E-01
    0.3418015926E-01
    0.3522492698E-01
    0.3626951336E-01
    0.3731388219E-01
    0.3835799728E-01
    0.3940182250E-01
    0.4044532172E-01
    0.4148845888E-01
    0.4253119799E-01
    0.4357350308E-01
    0.4461533824E-01
    0.4565666767E-01
    0.4669745558E-01
    0.4773766629E-01
    0.4877726420E-01
    0.4981621378E-01
    0.5085447960E-01
    0.5189202632E-01
    0.5292881870E-01
    0.5396482160E-01
    0.5500000000E-01
    0.0000000000E+00
    0.9375000000E-03
    0.1875000000E-02
    0.2812500000E-02
    0.3750000000E-02
    0.4687500000E-02
    0.5625000000E-02
    0.6562500000E-02
    0.7500000000E-02
    0.8437500000E-02
    0.9375000000E-02
    0.1031250000E-01
    0.1125000000E-01
    0.1218750000E-01
    0.1312500000E-01
    0.1406250000E-01
    0.1500000000E-01
    0.1593750000E-01
    0.1687500000E-01
    0.1781250000E-01
    0.1875000000E-01
    0.1968750000E-01
    0.2062500000E-01
    0.2156250000E-01
    0.2250000000E-01
    0.2343750000E-01
    0.2437500000E-01
    0.2531250000E-01
    0.2625000000E-01
    0.2718750000E-01
    0.2812500000E-01
    0.2906250000E-01
    0.3000000000E-01
    0.3104513053E-01
    0.3209022477E-01
    0.3313524644E-01
    0.3418015926E-01
    0.3522492698E-01
    0.3626951336E-01
    0.3731388219E-01
    0.3835799728E-01
    0.3940182250E-01
    0.4044532172E-01
    0.4148845888E-01
    0.4253119799E-01
    0.4357350308E-01
    0.4461533824E-01
    0.4565666767E-01
    0.4669745558E-01
    0.4773766629E-01
    0.4877726420E-01
    0.4981621378E-01
    0.5085447960E-01
    0.5189202632E-01
    0.5292881870E-01
    0.5396482160E-01
    0.5500000000E-01
    0.0000000000E+00
    0.9375000000E-03
    0.1875000000E-02
    0.2812500000E-02
    0.3750000000E-02
    0.4687500000E-02
    0.5625000000E-02
    0.6562500000E-02
    0.7500000000E-02
    0.8437500000E-02
    0.9375000000E-02
    0.1031250000E-01
    0.1125000000E-01
    0.1218750000E-01
    0.1312500000E-01
    0.1406250000E-01
    0.1500000000E-01
    0.1593750000E-01
    0.1687500000E-01
    0.1781250000E-01
    0.1875000000E-01
    0.1968750000E-01
    0.2062500000E-01
    0.2156250000E-01
    0.2250000000E-01
    0.2343750000E-01
    0.2437500000E-01
    0.2531250000E-01
    0.2625000000E-01
    0.2718750000E-01
    0.2812500000E-01
    0.2906250000E-01
    0.3000000000E-01
    0.3104513053E-01
    0.3209022477E-01
    0.3313524644E-01
    0.3418015926E-01
    0.3522492698E-01
    0.3626951336E-01
    0.3731388219E-01
    0.3835799728E-01
    0.3940182250E-01
    0.4044532172E-01
    0.4148845888E-01
    0.4253119799E-01
    0.4357350308E-01
    0.4461533824E-01
    0.4565666767E-01
    0.4669745558E-01
    0.4773766629E-01
    0.4877726420E-01
    0.4981621378E-01
    0.5085447960E-01
    0.5189202632E-01
    0.5292881870E-01
    0.5396482160E-01
    0.5500000000E-01
    0.0000000000E+00
    0.9375000000E-03
    0.1875000000E-02
    0.2812500000E-02
    0.3750000000E-02
    0.4687500000E-02
    0.5625000000E-02
    0.6562500000E-02
    0.7500000000E-02
    0.8437500000E-02
    0.9375000000E-02
    0.1031250000E-01
    0.1125000000E-01
    0.1218750000E-01
    0.1312500000E-01
    0.1406250000E-01
    0.1500000000E-01
    0.1593750000E-01
    0.1687500000E-01
    0.1781250000E-01
    0.1875000000E-01
    0.1968750000E-01
    0.2062500000E-01
    0.2156250000E-01
    0.2250000000E-01
    0.2343750000E-01
    0.2437500000E-01
    0.2531250000E-01
    0.2625000000E-01
    0.2718750000E-01
    0.2812500000E-01
    0.2906250000E-01
    0.3000000000E-01
    0.3104513053E-01
    0.3209022477E-01
    0.3313524644E-01
    0.3418015926E-01
    0.3522492698E-01
    0.3626951336E-01
    0.3731388219E-01
    0.3835799728E-01
    0.3940182250E-01
    0.4044532172E-01
    0.4148845888E-01
    0.4253119799E-01
    0.4357350308E-01
    0.4461533824E-01
    0.4565666767E-01
    0.4669745558E-01
    0.4773766629E-01
    0.4877726420E-01
    0.4981621378E-01
    0.5085447960E-01
    0.5189202632E-01
    0.5292881870E-01
    0.5396482160E-01
    0.5500000000E-01
    0.0000000000E+00
    0.9375000000E-03
    0.1875000000E-02
    0.2812500000E-02
    0.3750000000E-02
    0.4687500000E-02
    0.5625000000E-02
    0.6562500000E-02
    0.7500000000E-02
    0.8437500000E-02
    0.9375000000E-02
    0.1031250000E-01
    0.1125000000E-01
    0.1218750000E-01
    0.1312500000E-01
    0.1406250000E-01
    0.1500000000E-01
    0.1593750000E-01
    0.1687500000E-01
    0.1781250000E-01
    0.1875000000E-01
    0.1968750000E-01
    0.2062500000E-01
    0.2156250000E-01
    0.2250000000E-01
    0.2343750000E-01
    0.2437500000E-01
    0.2531250000E-01
    0.2625000000E-01
    0.2718750000E-01
    0.2812500000E-01
    0.2906250000E-01
    0.3000000000E-01
    0.3104166667E-01
    0.3208333333E-01
    0.3312500000E-01
    0.3416666667E-01
    0.3520833333E-01
    0.3625000000E-01
    0.3729166667E-01
    0.3833333333E-01
    0.3937500000E-01
    0.4041666667E-01
    0.4145833333E-01
    0.4250000000E-01
    0.4354166667E-01
    0.4458333333E-01
    0.4562500000E-01
    0.4666666667E-01
    0.4770833333E-01
    0.4875000000E-01
    0.4979166667E-01
    0.5083333333E-01
    0.5187500000E-01
    0.5291666667E-01
    0.5395833333E-01
    0.5500000000E-01
    0.0000000000E+00
    0.9375000000E-03
    0.1875000000E-02
    0.2812500000E-02
    0.3750000000E-02
    0.4687500000E-02
    0.5625000000E-02
    0.6562500000E-02
    0.7500000000E-02
    0.8437500000E-02
    0.9375000000E-02
    0.1031250000E-01
    0.1125000000E-01
    0.1218750000E-01
    0.1312500000E-01
    0.1406250000E-01
    0.1500000000E-01
    0.1593750000E-01
    0.1687500000E-01
    0.1781250000E-01
    0.1875000000E-01
    0.1968750000E-01
    0.2062500000E-01
    0.2156250000E-01
    0.2250000000E-01
    0.2343750000E-01
    0.2437500000E-01
    0.2531250000E-01
    0.2625000000E-01
    0.2718750000E-01
    0.2812500000E-01
    0.2906250000E-01
    0.3000000000E-01
    0.3101774446E-01
    0.3203548893E-01
    0.3305323339E-01
    0.3407097785E-01
    0.3508872232E-01
    0.3610646678E-01
    0.3712421125E-01
    0.3814195571E-01
    0.3915970017E-01
    0.4017744464E-01
    0.4119518910E-01
    0.4221293356E-01
    0.4323067803E-01
    0.4424842249E-01
    0.4526616695E-01
    0.4628391142E-01
    0.4730165588E-01
    0.4831940034E-01
    0.4933714481E-01
    0.5035488927E-01
    0.5137263374E-01
    0.5239037820E-01
    0.5340812266E-01
    0.5442586713E-01
    0.0000000000E+00
    0.9375000000E-03
    0.1875000000E-02
    0.2812500000E-02
    0.3750000000E-02
    0.4687500000E-02
    0.5625000000E-02
    0.6562500000E-02
    0.7500000000E-02
    0.8437500000E-02
    0.9375000000E-02
    0.1031250000E-01
    0.1125000000E-01
    0.1218750000E-01
    0.1312500000E-01
    0.1406250000E-01
    0.1500000000E-01
    0.1593750000E-01
    0.1687500000E-01
    0.1781250000E-01
    0.1875000000E-01
    0.1968750000E-01
    0.2062500000E-01
    0.2156250000E-01
    0.2250000000E-01
    0.2343750000E-01
    0.2437500000E-01
    0.2531250000E-01
    0.2625000000E-01
    0.2718750000E-01
    0.2812500000E-01
    0.2906250000E-01
    0.3000000000E-01
    0.3099443482E-01
    0.3198886965E-01
    0.3298330447E-01
    0.3397773929E-01
    0.3497217411E-01
    0.3596660894E-01
    0.3696104376E-01
    0.3795547858E-01
    0.3894991340E-01
    0.3994434823E-01
    0.4093878305E-01
    0.4193321787E-01
    0.4292765270E-01
    0.4392208752E-01
    0.4491652234E-01
    0.4591095716E-01
    0.4690539199E-01
    0.4789982681E-01
    0.4889426163E-01
    0.4988869645E-01
    0.5088313128E-01
    0.5187756610E-01
    0.5287200092E-01
    0.5386643574E-01
    0.0000000000E+00
    0.9375000000E-03
    0.1875000000E-02
    0.2812500000E-02
    0.3750000000E-02
    0.4687500000E-02
    0.5625000000E-02
    0.6562500000E-02
    0.7500000000E-02
    0.8437500000E-02
    0.9375000000E-02
    0.1031250000E-01
    0.1125000000E-01
    0.1218750000E-01
    0.1312500000E-01
    0.1406250000E-01
    0.1500000000E-01
    0.1593750000E-01
    0.1687500000E-01
    0.1781250000E-01
    0.1875000000E-01
    0.1968750000E-01
    0.2062500000E-01
    0.2156250000E-01
    0.2250000000E-01
    0.2343750000E-01
    0.2437500000E-01
    0.2531250000E-01
    0.2625000000E-01
    0.2718750000E-01
    0.2812500000E-01
    0.2906250000E-01
    0.3000000000E-01
    0.3097228913E-01
    0.3194457826E-01
    0.3291686739E-01
    0.3388915652E-01
    0.3486144565E-01
    0.3583373478E-01
    0.3680602391E-01
    0.3777831305E-01
    0.3875060218E-01
    0.3972289131E-01
    0.4069518044E-01
    0.4166746957E-01
    0.4263975870E-01
    0.4361204783E-01
    0.4458433696E-01
    0.4555662609E-01
    0.4652891522E-01
    0.4750120435E-01
    0.4847349348E-01
    0.4944578261E-01
    0.5041807174E-01
    0.5139036087E-01
    0.5236265001E-01
    0.5333493914E-01
    0.0000000000E+00
    0.9375000000E-03
    0.1875000000E-02
    0.2812500000E-02
    0.3750000000E-02
    0.4687500000E-02
    0.5625000000E-02
    0.6562500000E-02
    0.7500000000E-02
    0.8437500000E-02
    0.9375000000E-02
    0.1031250000E-01
    0.1125000000E-01
    0.1218750000E-01
    0.1312500000E-01
    0.1406250000E-01
    0.1500000000E-01
    0.1593750000E-01
    0.1687500000E-01
    0.1781250000E-01
    0.1875000000E-01
    0.1968750000E-01
    0.2062500000E-01
    0.2156250000E-01
    0.2250000000E-01
    0.2343750000E-01
    0.2437500000E-01
    0.2531250000E-01
    0.2625000000E-01
    0.2718750000E-01
    0.2812500000E-01
    0.2906250000E-01
    0.3000000000E-01
    0.3095174896E-01
    0.3190349793E-01
    0.3285524689E-01
    0.3380699585E-01
    0.3475874482E-01
    0.3571049378E-01
    0.3666224274E-01
    0.3761399171E-01
    0.3856574067E-01
    0.3951748963E-01
    0.4046923860E-01
    0.4142098756E-01
    0.4237273653E-01
    0.4332448549E-01
    0.4427623445E-01
    0.4522798342E-01
    0.4617973238E-01
    0.4713148134E-01
    0.4808323031E-01
    0.4903497927E-01
    0.4998672823E-01
    0.5093847720E-01
    0.5189022616E-01
    0.5284197512E-01
    0.0000000000E+00
    0.9375000000E-03
    0.1875000000E-02
    0.2812500000E-02
    0.3750000000E-02
    0.4687500000E-02
    0.5625000000E-02
    0.6562500000E-02
    0.7500000000E-02
    0.8437500000E-02
    0.9375000000E-02
    0.1031250000E-01
    0.1125000000E-01
    0.1218750000E-01
    0.1312500000E-01
    0.1406250000E-01
    0.1500000000E-01
    0.1593750000E-01
    0.1687500000E-01
    0.1781250000E-01
    0.1875000000E-01
    0.1968750000E-01
    0.2062500000E-01
    0.2156250000E-01
    0.2250000000E-01
    0.2343750000E-01
    0.2437500000E-01
    0.2531250000E-01
    0.2625000000E-01
    0.2718750000E-01
    0.2812500000E-01
    0.2906250000E-01
    0.3000000000E-01
    0.3093311831E-01
    0.3186623661E-01
    0.3279935492E-01
    0.3373247323E-01
    0.3466559153E-01
    0.3559870984E-01
    0.3653182815E-01
    0.3746494645E-01
    0.3839806476E-01
    0.3933118307E-01
    0.4026430137E-01
    0.4119741968E-01
    0.4213053799E-01
    0.4306365629E-01
    0.4399677460E-01
    0.4492989291E-01
    0.4586301122E-01
    0.4679612952E-01
    0.4772924783E-01
    0.4866236614E-01
    0.4959548444E-01
    0.5052860275E-01
    0.5146172106E-01
    0.5239483936E-01
    0.0000000000E+00
    0.9375000000E-03
    0.1875000000E-02
    0.2812500000E-02
    0.3750000000E-02
    0.4687500000E-02
    0.5625000000E-02
    0.6562500000E-02
    0.7500000000E-02
    0.8437500000E-02
    0.9375000000E-02
    0.1031250000E-01
    0.1125000000E-01
    0.1218750000E-01
    0.1312500000E-01
    0.1406250000E-01
    0.1500000000E-01
    0.1593750000E-01
    0.1687500000E-01
    0.1781250000E-01
    0.1875000000E-01
    0.1968750000E-01
    0.2062500000E-01
    0.2156250000E-01
    0.2250000000E-01
    0.2343750000E-01
    0.2437500000E-01
    0.2531250000E-01
    0.2625000000E-01
    0.2718750000E-01
    0.2812500000E-01
    0.2906250000E-01
    0.3000000000E-01
    0.3091655856E-01
    0.3183311712E-01
    0.3274967569E-01
    0.3366623425E-01
    0.3458279281E-01
    0.3549935137E-01
    0.3641590993E-01
    0.3733246850E-01
    0.3824902706E-01
    0.3916558562E-01
    0.4008214418E-01
    0.4099870274E-01
    0.4191526131E-01
    0.4283181987E-01
    0.4374837843E-01
    0.4466493699E-01
    0.4558149555E-01
    0.4649805412E-01
    0.4741461268E-01
    0.4833117124E-01
    0.4924772980E-01
    0.5016428836E-01
    0.5108084693E-01
    0.5199740549E-01
    0.0000000000E+00
    0.9375000000E-03
    0.1875000000E-02
    0.2812500000E-02
    0.3750000000E-02
    0.4687500000E-02
    0.5625000000E-02
    0.6562500000E-02
    0.7500000000E-02
    0.8437500000E-02
    0.9375000000E-02
    0.1031250000E-01
    0.1125000000E-01
    0.1218750000E-01
    0.1312500000E-01
    0.1406250000E-01
    0.1500000000E-01
    0.1593750000E-01
    0.1687500000E-01
    0.1781250000E-01
    0.1875000000E-01
    0.1968750000E-01
    0.2062500000E-01
    0.2156250000E-01
    0.2250000000E-01
    0.2343750000E-01
    0.2437500000E-01
    0.2531250000E-01
    0.2625000000E-01
    0.2718750000E-01
    0.2812500000E-01
    0.2906250000E-01
    0.3000000000E-01
    0.3090210251E-01
    0.3180420502E-01
    0.3270630753E-01
    0.3360841004E-01
    0.3451051255E-01
    0.3541261507E-01
    0.3631471758E-01
    0.3721682009E-01
    0.3811892260E-01
    0.3902102511E-01
    0.3992312762E-01
    0.4082523013E-01
    0.4172733264E-01
    0.4262943515E-01
    0.4353153766E-01
    0.4443364017E-01
    0.4533574269E-01
    0.4623784520E-01
    0.4713994771E-01
    0.4804205022E-01
    0.4894415273E-01
    0.4984625524E-01
    0.5074835775E-01
    0.5165046026E-01
    0.0000000000E+00
    0.9375000000E-03
    0.1875000000E-02
    0.2812500000E-02
    0.3750000000E-02
    0.4687500000E-02
    0.5625000000E-02
    0.6562500000E-02
    0.7500000000E-02
    0.8437500000E-02
    0.9375000000E-02
    0.1031250000E-01
    0.1125000000E-01
    0.1218750000E-01
    0.1312500000E-01
    0.1406250000E-01
    0.1500000000E-01
    0.1593750000E-01
    0.1687500000E-01
    0.1781250000E-01
    0.1875000000E-01
    0.1968750000E-01
    0.2062500000E-01
    0.2156250000E-01
    0.2250000000E-01
    0.2343750000E-01
    0.2437500000E-01
    0.2531250000E-01
    0.2625000000E-01
    0.2718750000E-01
    0.2812500000E-01
    0.2906250000E-01
    0.3000000000E-01
    0.3088968018E-01
    0.3177936036E-01
    0.3266904054E-01
    0.3355872072E-01
    0.3444840090E-01
    0.3533808108E-01
    0.3622776126E-01
    0.3711744144E-01
    0.3800712162E-01
    0.3889680180E-01
    0.3978648198E-01
    0.4067616216E-01
    0.4156584234E-01
    0.4245552252E-01
    0.4334520270E-01
    0.4423488288E-01
    0.4512456306E-01
    0.4601424324E-01
    0.4690392342E-01
    0.4779360360E-01
    0.4868328378E-01
    0.4957296396E-01
    0.5046264414E-01
    0.5135232432E-01
    0.0000000000E+00
    0.9375000000E-03
    0.1875000000E-02
    0.2812500000E-02
    0.3750000000E-02
    0.4687500000E-02
    0.5625000000E-02
    0.6562500000E-02
    0.7500000000E-02
    0.8437500000E-02
    0.9375000000E-02
    0.1031250000E-01
    0.1125000000E-01
    0.1218750000E-01
    0.1312500000E-01
    0.1406250000E-01
    0.1500000000E-01
    0.1593750000E-01
    0.1687500000E-01
    0.1781250000E-01
    0.1875000000E-01
    0.1968750000E-01
    0.2062500000E-01
    0.2156250000E-01
    0.2250000000E-01
    0.2343750000E-01
    0.2437500000E-01
    0.2531250000E-01
    0.2625000000E-01
    0.2718750000E-01
    0.2812500000E-01
    0.2906250000E-01
    0.3000000000E-01
    0.3087914917E-01
    0.3175829834E-01
    0.3263744751E-01
    0.3351659668E-01
    0.3439574584E-01
    0.3527489501E-01
    0.3615404418E-01
    0.3703319335E-01
    0.3791234252E-01
    0.3879149169E-01
    0.3967064086E-01
    0.4054979003E-01
    0.4142893920E-01
    0.4230808836E-01
    0.4318723753E-01
    0.4406638670E-01
    0.4494553587E-01
    0.4582468504E-01
    0.4670383421E-01
    0.4758298338E-01
    0.4846213255E-01
    0.4934128172E-01
    0.5022043088E-01
    0.5109958005E-01
    0.0000000000E+00
    0.9375000000E-03
    0.1875000000E-02
    0.2812500000E-02
    0.3750000000E-02
    0.4687500000E-02
    0.5625000000E-02
    0.6562500000E-02
    0.7500000000E-02
    0.8437500000E-02
    0.9375000000E-02
    0.1031250000E-01
    0.1125000000E-01
    0.1218750000E-01
    0.1312500000E-01
    0.1406250000E-01
    0.1500000000E-01
    0.1593750000E-01
    0.1687500000E-01
    0.1781250000E-01
    0.1875000000E-01
    0.1968750000E-01
    0.2062500000E-01
    0.2156250000E-01
    0.2250000000E-01
    0.2343750000E-01
    0.2437500000E-01
    0.2531250000E-01
    0.2625000000E-01
    0.2718750000E-01
    0.2812500000E-01
    0.2906250000E-01
    0.3000000000E-01
    0.3087032362E-01
    0.3174064724E-01
    0.3261097086E-01
    0.3348129449E-01
    0.3435161811E-01
    0.3522194173E-01
    0.3609226535E-01
    0.3696258897E-01
    0.3783291259E-01
    0.3870323621E-01
    0.3957355983E-01
    0.4044388346E-01
    0.4131420708E-01
    0.4218453070E-01
    0.4305485432E-01
    0.4392517794E-01
    0.4479550156E-01
    0.4566582518E-01
    0.4653614881E-01
    0.4740647243E-01
    0.4827679605E-01
    0.4914711967E-01
    0.5001744329E-01
    0.5088776691E-01
    0.0000000000E+00
    0.9375000000E-03
    0.1875000000E-02
    0.2812500000E-02
    0.3750000000E-02
    0.4687500000E-02
    0.5625000000E-02
    0.6562500000E-02
    0.7500000000E-02
    0.8437500000E-02
    0.9375000000E-02
    0.1031250000E-01
    0.1125000000E-01
    0.1218750000E-01
    0.1312500000E-01
    0.1406250000E-01
    0.1500000000E-01
    0.1593750000E-01
    0.1687500000E-01
    0.1781250000E-01
    0.1875000000E-01
    0.1968750000E-01
    0.2062500000E-01
    0.2156250000E-01
    0.2250000000E-01
    0.2343750000E-01
    0.2437500000E-01
    0.2531250000E-01
    0.2625000000E-01
    0.2718750000E-01
    0.2812500000E-01
    0.2906250000E-01
    0.3000000000E-01
    0.3086299836E-01
    0.3172599672E-01
    0.3258899509E-01
    0.3345199345E-01
    0.3431499181E-01
    0.3517799017E-01
    0.3604098854E-01
    0.3690398690E-01
    0.3776698526E-01
    0.3862998362E-01
    0.3949298199E-01
    0.4035598035E-01
    0.4121897871E-01
    0.4208197707E-01
    0.4294497544E-01
    0.4380797380E-01
    0.4467097216E-01
    0.4553397052E-01
    0.4639696889E-01
    0.4725996725E-01
    0.4812296561E-01
    0.4898596397E-01
    0.4984896234E-01
    0.5071196070E-01
    0.0000000000E+00
    0.9375000000E-03
    0.1875000000E-02
    0.2812500000E-02
    0.3750000000E-02
    0.4687500000E-02
    0.5625000000E-02
    0.6562500000E-02
    0.7500000000E-02
    0.8437500000E-02
    0.9375000000E-02
    0.1031250000E-01
    0.1125000000E-01
    0.1218750000E-01
    0.1312500000E-01
    0.1406250000E-01
    0.1500000000E-01
    0.1593750000E-01
    0.1687500000E-01
    0.1781250000E-01
    0.1875000000E-01
    0.1968750000E-01
    0.2062500000E-01
    0.2156250000E-01
    0.2250000000E-01
    0.2343750000E-01
    0.2437500000E-01
    0.2531250000E-01
    0.2625000000E-01
    0.2718750000E-01
    0.2812500000E-01
    0.2906250000E-01
    0.3000000000E-01
    0.3085696689E-01
    0.3171393378E-01
    0.3257090066E-01
    0.3342786755E-01
    0.3428483444E-01
    0.3514180133E-01
    0.3599876822E-01
    0.3685573510E-01
    0.3771270199E-01
    0.3856966888E-01
    0.3942663577E-01
    0.4028360266E-01
    0.4114056954E-01
    0.4199753643E-01
    0.4285450332E-01
    0.4371147021E-01
    0.4456843710E-01
    0.4542540398E-01
    0.4628237087E-01
    0.4713933776E-01